LAMMPS '*.data' description

       24 atoms
       2 atom types

    0.0 7.15998      xlo xhi
    0.0 7.15998      ylo yhi
    0.0 7.15998      zlo zhi

Atoms

	1  1 1  1.82579 1.82579 1.82579
	2  1 1  5.40578 1.75419 5.33418
	3  1 1  1.75419 5.33418 5.40578
	4  1 1  5.33418 5.40578 1.75419
	5  1 1  7.1027 7.1027 7.1027
	6  1 1  3.52271 3.63727 0.0572798
	7  1 1  3.63727 0.0572798 3.52271
	8  1 1  0.0572798 3.52271 3.63727
	9  1 2  0.894997 0.894997 0.894997
	10 1 2  4.47499 2.68499 6.26498
	11 1 2  2.68499 6.26498 4.47499
	12 1 2  6.26498 4.47499 2.68499
	13 1 2  4.72559 4.72559 0.429599
	14 1 2  1.1456 6.01438 6.73038
	15 1 2  1.1456 3.15039 2.43439
	16 1 2  4.00959 6.01438 2.43439
	17 1 2  4.72559 0.429599 4.72559
	18 1 2  2.43439 1.1456 3.15039
	19 1 2  2.43439 4.00959 6.01438
	20 1 2  6.73038 1.1456 6.01438
	21 1 2  0.429599 4.72559 4.72559
	22 1 2  6.01438 2.43439 4.00959
	23 1 2  6.01438 6.73038 1.1456
	24 1 2  3.15039 2.43439 1.1456

